<?xml version="1.0" encoding="UTF-8"?>

<!-- generated on 2021年05月16日 星期日 10时33分48秒 by Eclipse SUMO GUI Version 1.8.0
<configuration xmlns:xsi="http://www.w3.org/2001/XMLSchema-instance" xsi:noNamespaceSchemaLocation="http://sumo.dlr.de/xsd/sumoConfiguration.xsd">

    <input>
        <net-file value="junction.net.xml"/>
        <route-files value="junction.rou.xml"/>
        <additional-files value="junction.det.xml"/>
    </input>

    <time>
        <begin value="0"/>
        <end value="10000"/>
    </time>

    <processing>
        <time-to-teleport value="-1"/>
    </processing>

    <traci_server>
        <remote-port value="46339"/>
    </traci_server>

</configuration>
-->

<detector xmlns:xsi="http://www.w3.org/2001/XMLSchema-instance" xsi:noNamespaceSchemaLocation="http://sumo.dlr.de/xsd/det_e1_file.xsd">
    <interval begin="0.00" end="22.00" id="1" nVehContrib="1" flow="163.64" occupancy="3.80" speed="5.97" harmonicMeanSpeed="5.97" length="5.00" nVehEntered="1"/>
</detector>
